# vtk DataFile Version 2.0
Electric current density generated by TTH
ASCII
DATASET UNSTRUCTURED_GRID
POINTS 13888 double
1.444444e-05 0.000000e+00 -1.000000e-07
1.436704e-05 1.493323e-06 -1.000000e-07
-1.245117e-06 1.439068e-05 -1.000000e-07
1.408229e-05 -3.214191e-06 1.000000e-07
1.296775e-05 1.420534e-06 1.000000e-07
1.307765e-05 1.646752e-06 1.000000e-07
-1.680813e-06 -1.275369e-05 1.000000e-07
-1.761822e-06 -1.301700e-05 1.000000e-07
-1.635045e-06 -1.248650e-05 1.000000e-07
-1.853438e-06 -1.256920e-05 1.000000e-07
-1.610837e-06 -1.222961e-05 1.000000e-07
-1.985595e-06 -1.241570e-05 1.000000e-07
-2.047740e-06 -1.265046e-05 1.000000e-07
1.280794e-05 1.199292e-06 1.000000e-07
1.413567e-05 -2.970643e-06 1.000000e-07
1.308268e-05 1.178906e-06 1.000000e-07
1.253727e-05 1.184457e-06 1.000000e-07
1.266650e-05 9.899431e-07 1.000000e-07
1.228143e-05 1.150895e-06 1.000000e-07
1.254625e-05 8.269421e-07 1.000000e-07
1.278895e-05 8.185919e-07 1.000000e-07
9.192322e-06 -9.249017e-06 1.000000e-07
8.922796e-06 -9.265545e-06 1.000000e-07
9.078005e-06 -9.492739e-06 1.000000e-07
8.742693e-06 -9.066101e-06 1.000000e-07
1.418484e-05 -2.726210e-06 1.000000e-07
8.672931e-06 -9.285403e-06 1.000000e-07
8.798323e-06 -8.835583e-06 1.000000e-07
8.557123e-06 -8.884967e-06 1.000000e-07
8.469074e-06 -9.293452e-06 1.000000e-07
8.613914e-06 -9.488435e-06 1.000000e-07
9.336034e-06 -8.452669e-06 1.000000e-07
9.292118e-06 -8.723217e-06 1.000000e-07
9.526123e-06 -8.639450e-06 1.000000e-07
9.045714e-06 -8.781149e-06 1.000000e-07
9.241616e-06 -8.981699e-06 1.000000e-07
1.422979e-05 -2.480964e-06 1.000000e-07
8.850548e-06 -8.602107e-06 1.000000e-07
9.441266e-06 -9.197789e-06 1.000000e-07
-9.066057e-06 6.587665e-06 1.000000e-07
-9.211990e-06 6.392230e-06 1.000000e-07
-9.388469e-06 6.528371e-06 1.000000e-07
-9.360383e-06 6.201435e-06 1.000000e-07
-9.399798e-06 6.831720e-06 1.000000e-07
-9.565512e-06 6.662443e-06 1.000000e-07
-9.493473e-06 5.994470e-06 1.000000e-07
1.115406e-05 1.281755e-06 1.000000e-07
1.427049e-05 -2.234979e-06 1.000000e-07
1.112362e-05 1.525785e-06 1.000000e-07
1.129110e-05 1.808342e-06 1.000000e-07
1.107268e-05 1.762058e-06 1.000000e-07
1.150904e-05 1.852544e-06 1.000000e-07
1.143310e-05 2.076748e-06 1.000000e-07
1.102652e-05 2.001667e-06 1.000000e-07
8.439886e-06 7.372859e-06 1.000000e-07
8.281824e-06 7.558619e-06 1.000000e-07
8.453821e-06 7.700376e-06 1.000000e-07
8.128839e-06 7.745749e-06 1.000000e-07
1.430694e-05 -1.988329e-06 1.000000e-07
8.752087e-06 7.643925e-06 1.000000e-07
8.624227e-06 7.843348e-06 1.000000e-07
7.956672e-06 7.921552e-06 1.000000e-07
7.956672e-06 -7.921552e-06 1.000000e-07
8.128472e-06 -7.745594e-06 1.000000e-07
8.453821e-06 -7.700376e-06 1.000000e-07
8.281370e-06 -7.558381e-06 1.000000e-07
8.624227e-06 -7.843348e-06 1.000000e-07
8.752087e-06 -7.643925e-06 1.000000e-07
8.439886e-06 -7.372859e-06 1.000000e-07
1.433913e-05 -1.741085e-06 1.000000e-07
-5.021501e-07 1.119547e-05 1.000000e-07
-7.459338e-07 1.118771e-05 1.000000e-07
-7.495256e-07 1.141057e-05 1.000000e-07
-9.876226e-07 1.118478e-05 1.000000e-07
-5.194241e-07 1.160857e-05 1.000000e-07
-7.550592e-07 1.163294e-05 1.000000e-07
-1.232415e-06 1.115978e-05 1.000000e-07
-1.232393e-06 -1.115962e-05 1.000000e-07
-9.877081e-07 -1.118425e-05 1.000000e-07
-7.495036e-07 -1.141041e-05 1.000000e-07
1.436704e-05 -1.493323e-06 1.000000e-07
-7.460234e-07 -1.118716e-05 1.000000e-07
-7.549062e-07 -1.163272e-05 1.000000e-07
-5.194241e-07 -1.160857e-05 1.000000e-07
-5.021501e-07 -1.119547e-05 1.000000e-07
-1.080304e-05 -2.980787e-06 1.000000e-07
-1.074123e-05 -3.216732e-06 1.000000e-07
-1.095770e-05 -3.269824e-06 1.000000e-07
-1.068459e-05 -3.451708e-06 1.000000e-07
-1.120193e-05 -3.089550e-06 1.000000e-07
-1.117326e-05 -3.324701e-06 1.000000e-07
1.439068e-05 -1.245117e-06 1.000000e-07
-1.060575e-05 -3.684801e-06 1.000000e-07
-2.586321e-07 -1.120901e-05 1.000000e-07
-2.737151e-07 -1.143019e-05 1.000000e-07
-1.761901e-08 -1.122672e-05 1.000000e-07
-2.876860e-07 -1.165291e-05 1.000000e-07
2.262350e-07 -1.123013e-05 1.000000e-07
-1.099899e-05 -2.278426e-06 1.000000e-07
-1.094355e-05 -2.516586e-06 1.000000e-07
-1.108269e-05 -2.810305e-06 1.000000e-07
-1.087043e-05 -2.746387e-06 1.000000e-07
1.441003e-05 -9.965387e-07 1.000000e-07
-1.129669e-05 -2.873477e-06 1.000000e-07
2.262054e-07 1.123022e-05 1.000000e-07
-1.832049e-08 1.122917e-05 1.000000e-07
-2.737140e-07 1.143017e-05 1.000000e-07
-2.586317e-07 1.120901e-05 1.000000e-07
-2.876824e-07 1.165287e-05 1.000000e-07
8.603435e-06 -7.191897e-06 1.000000e-07
8.769210e-06 -7.343557e-06 1.000000e-07
8.769562e-06 -7.016260e-06 1.000000e-07
8.933964e-06 -7.491291e-06 1.000000e-07
-1.493323e-06 1.436704e-05 -1.000000e-07
1.442508e-05 -7.476640e-07 1.000000e-07
8.924381e-06 -6.827178e-06 1.000000e-07
1.098553e-05 2.242092e-06 1.000000e-07
1.120450e-05 2.276602e-06 1.000000e-07
1.094915e-05 2.481001e-06 1.000000e-07
1.142472e-05 2.312538e-06 1.000000e-07
1.089821e-05 2.719499e-06 1.000000e-07
-8.639104e-06 7.178783e-06 1.000000e-07
-8.790738e-06 6.986947e-06 1.000000e-07
-9.107128e-06 6.912599e-06 1.000000e-07
-8.924811e-06 6.786497e-06 1.000000e-07
1.443584e-05 -4.985665e-07 1.000000e-07
-9.289947e-06 7.040526e-06 1.000000e-07
8.921241e-06 6.825104e-06 1.000000e-07
8.767962e-06 7.015626e-06 1.000000e-07
8.765882e-06 7.340628e-06 1.000000e-07
8.602326e-06 7.190921e-06 1.000000e-07
8.931454e-06 7.490476e-06 1.000000e-07
1.197533e-05 1.495206e-06 1.000000e-07
1.169602e-05 1.424385e-06 1.000000e-07
1.184320e-05 1.238139e-06 1.000000e-07
1.159963e-05 1.635000e-06 1.000000e-07
1.444229e-05 -2.493204e-07 1.000000e-07
1.143296e-05 1.357667e-06 1.000000e-07
1.173742e-05 1.900553e-06 1.000000e-07
1.125045e-05 1.071140e-06 1.000000e-07
8.636573e-06 -8.431760e-06 1.000000e-07
8.406044e-06 -8.256783e-06 1.000000e-07
8.352132e-06 -8.487421e-06 1.000000e-07
8.510725e-06 -8.050225e-06 1.000000e-07
8.189880e-06 -8.092414e-06 1.000000e-07
8.804143e-06 -7.992200e-06 1.000000e-07
7.851991e-06 -8.128111e-06 1.000000e-07
1.100000e-05 0.000000e+00 -5.000000e-08
-9.711681e-06 6.183564e-06 1.000000e-07
-9.671555e-06 5.846451e-06 1.000000e-07
-9.738729e-06 6.503732e-06 1.000000e-07
-9.919567e-06 6.357296e-06 1.000000e-07
-9.748970e-06 6.802483e-06 1.000000e-07
-1.013920e-05 6.541345e-06 1.000000e-07
-1.012864e-05 6.250006e-06 1.000000e-07
8.189880e-06 8.092414e-06 1.000000e-07
7.851991e-06 8.128111e-06 1.000000e-07
8.508415e-06 8.047790e-06 1.000000e-07
1.100000e-05 0.000000e+00 0.000000e+00
8.406044e-06 8.256783e-06 1.000000e-07
8.801928e-06 7.991280e-06 1.000000e-07
8.636578e-06 8.431535e-06 1.000000e-07
8.352132e-06 8.487421e-06 1.000000e-07
-1.207043e-06 -1.200780e-05 1.000000e-07
-1.213937e-06 -1.171973e-05 1.000000e-07
-1.428264e-06 -1.182178e-05 1.000000e-07
-9.871539e-07 -1.167263e-05 1.000000e-07
-1.220445e-06 -1.144842e-05 1.000000e-07
-7.589189e-07 -1.186605e-05 1.000000e-07
1.100000e-05 0.000000e+00 5.000000e-08
-1.459176e-06 -1.120673e-05 1.000000e-07
-1.220598e-06 1.144864e-05 1.000000e-07
-1.459176e-06 1.120673e-05 1.000000e-07
-9.871060e-07 1.166986e-05 1.000000e-07
-1.214330e-06 1.172013e-05 1.000000e-07
-7.599219e-07 1.186411e-05 1.000000e-07
-1.207221e-06 1.200932e-05 1.000000e-07
-1.428264e-06 1.182178e-05 1.000000e-07
-1.088999e-05 -3.737557e-06 1.000000e-07
-1.060105e-05 -3.916323e-06 1.000000e-07
1.099723e-05 2.468187e-07 1.000000e-07
-1.115762e-05 -3.559146e-06 1.000000e-07
-1.115607e-05 -3.791859e-06 1.000000e-07
-1.139755e-05 -3.380881e-06 1.000000e-07
-1.143959e-05 -3.849280e-06 1.000000e-07
-1.120756e-05 -4.023048e-06 1.000000e-07
1.904825e-07 -1.151226e-05 1.000000e-07
4.494538e-07 -1.129271e-05 1.000000e-07
-6.117023e-08 -1.171105e-05 1.000000e-07
1.597368e-07 -1.178249e-05 1.000000e-07
-3.034473e-07 -1.188178e-05 1.000000e-07
1.098892e-05 4.935131e-07 1.000000e-07
1.247984e-07 -1.207265e-05 1.000000e-07
3.619207e-07 -1.190140e-05 1.000000e-07
1.247574e-07 1.207168e-05 1.000000e-07
1.597455e-07 1.178240e-05 1.000000e-07
3.618309e-07 1.190013e-05 1.000000e-07
-6.127219e-08 1.171332e-05 1.000000e-07
1.904810e-07 1.151224e-05 1.000000e-07
-3.044659e-07 1.188485e-05 1.000000e-07
4.494538e-07 1.129271e-05 1.000000e-07
-1.179678e-05 -2.564572e-06 1.000000e-07
1.097508e-05 7.399591e-07 1.000000e-07
-1.152253e-05 -2.466090e-06 1.000000e-07
-1.168228e-05 -2.295269e-06 1.000000e-07
-1.140601e-05 -2.666195e-06 1.000000e-07
-1.126599e-05 -2.376010e-06 1.000000e-07
-1.151912e-05 -2.941460e-06 1.000000e-07
-1.110959e-05 -2.074678e-06 1.000000e-07
1.118120e-05 2.747421e-06 1.000000e-07
1.090956e-05 2.951048e-06 1.000000e-07
1.143097e-05 2.546307e-06 1.000000e-07
1.145144e-05 2.777570e-06 1.000000e-07
1.095572e-05 9.860324e-07 1.000000e-07
1.165134e-05 2.348097e-06 1.000000e-07
1.174124e-05 2.807830e-06 1.000000e-07
1.152125e-05 3.000787e-06 1.000000e-07
9.123463e-06 -7.025771e-06 1.000000e-07
9.111243e-06 -6.683707e-06 1.000000e-07
9.121453e-06 -7.347064e-06 1.000000e-07
9.314928e-06 -7.212384e-06 1.000000e-07
9.105447e-06 -7.648426e-06 1.000000e-07
9.519041e-06 -7.415737e-06 1.000000e-07
9.535354e-06 -7.119846e-06 1.000000e-07
-1.741085e-06 1.433913e-05 -1.000000e-07
1.093083e-05 1.231609e-06 1.000000e-07
-9.360233e-06 7.624107e-06 1.000000e-07
-9.112249e-06 7.471099e-06 1.000000e-07
-9.078298e-06 7.702501e-06 1.000000e-07
-9.196045e-06 7.255231e-06 1.000000e-07
-8.881872e-06 7.326691e-06 1.000000e-07
-9.481781e-06 7.172041e-06 1.000000e-07
-8.548763e-06 7.392284e-06 1.000000e-07
9.517029e-06 7.429579e-06 1.000000e-07
9.312032e-06 7.221581e-06 1.000000e-07
9.530908e-06 7.137516e-06 1.000000e-07
1.090045e-05 1.476566e-06 1.000000e-07
9.120292e-06 7.351343e-06 1.000000e-07
9.119637e-06 7.028954e-06 1.000000e-07
9.102599e-06 7.648347e-06 1.000000e-07
9.109222e-06 6.689489e-06 1.000000e-07
-1.120129e-05 5.530835e-20 1.000000e-07
-1.119925e-05 -2.429464e-07 1.000000e-07
-1.140370e-05 -2.384805e-07 1.000000e-07
-1.119621e-05 -4.838790e-07 1.000000e-07
-1.160388e-05 6.553121e-20 1.000000e-07
-1.161318e-05 -2.313986e-07 1.000000e-07
[...]
POINT_DATA 13888
VECTORS 10.000GHz_fone_imag double
2.960609e-02 -1.953669e-05 5.709065e-02
2.924483e-02 3.055947e-03 5.693697e-02
-2.514087e-03 2.921585e-02 5.695308e-02
-2.854451e-02 6.519137e-03 5.699387e-02
-4.127693e-02 -4.536271e-03 3.046055e-04
-4.089680e-02 -5.163567e-03 1.426443e-03
5.515838e-03 4.191280e-02 -1.182932e-03
5.507759e-03 4.094584e-02 1.142118e-03
5.718264e-03 4.375414e-02 -3.465969e-03
6.325067e-03 4.279801e-02 -2.500763e-03
6.141108e-03 4.658181e-02 -6.005725e-03
7.096131e-03 4.374632e-02 -3.541460e-03
6.814145e-03 4.205887e-02 -1.579533e-03
-4.206773e-02 -3.959453e-03 -1.099689e-03
-2.873264e-02 6.047205e-03 5.691089e-02
-4.109052e-02 -3.752417e-03 1.025400e-03
-4.399695e-02 -4.167280e-03 -3.373248e-03
-4.307347e-02 -3.445727e-03 -2.456909e-03
-4.670576e-02 -4.377897e-03 -5.830030e-03
-4.420637e-02 -2.995260e-03 -3.535358e-03
-4.243077e-02 -2.818174e-03 -1.442322e-03
-2.925180e-02 2.937579e-02 2.187765e-04
-2.940123e-02 3.047477e-02 -1.190194e-03
-2.852229e-02 2.981129e-02 9.172880e-04
-3.070591e-02 3.177405e-02 -3.558381e-03
-2.877850e-02 5.512886e-03 5.696280e-02
-2.959341e-02 3.168440e-02 -2.497208e-03
-3.206350e-02 3.222735e-02 -4.633244e-03
-3.258212e-02 3.376106e-02 -6.083160e-03
-2.985982e-02 3.275795e-02 -3.711227e-03
-2.866590e-02 3.157521e-02 -1.682058e-03
-3.276974e-02 2.960193e-02 -3.643949e-03
-3.135034e-02 2.941091e-02 -2.197981e-03
-3.132301e-02 2.841487e-02 -1.351085e-03
-3.168157e-02 3.074908e-02 -3.414559e-03
-3.019334e-02 2.940005e-02 -9.912331e-04
-2.882956e-02 5.034995e-03 5.698491e-02
-3.351294e-02 3.266982e-02 -5.982080e-03
-2.944388e-02 2.869744e-02 1.321225e-03
6.061015e-02 -4.408638e-02 -5.186333e-02
6.136531e-02 -4.264751e-02 -5.108519e-02
5.542449e-02 -3.844040e-02 -2.938459e-02
6.215801e-02 -4.122396e-02 -4.884560e-02
4.985279e-02 -3.612443e-02 -2.027893e-02
4.954174e-02 -3.450148e-02 -1.889236e-02
6.314869e-02 -3.974285e-02 -4.881884e-02
-7.409538e-02 -8.476153e-03 -4.890647e-02
-2.898919e-02 4.557975e-03 5.693938e-02
-7.385183e-02 -1.022980e-02 -4.880269e-02
-6.660794e-02 -1.065874e-02 -2.950119e-02
-7.394172e-02 -1.184593e-02 -5.106622e-02
-5.955277e-02 -9.613447e-03 -1.877553e-02
-6.065210e-02 -1.104019e-02 -2.027797e-02
-7.375752e-02 -1.340619e-02 -5.163492e-02
-5.623922e-02 -4.920550e-02 -5.148828e-02
-5.522123e-02 -5.032952e-02 -5.074449e-02
-4.976006e-02 -4.533039e-02 -2.932372e-02
-5.367927e-02 -5.113465e-02 -4.843333e-02
-2.900388e-02 4.021998e-03 5.699906e-02
-4.619051e-02 -4.047411e-02 -2.050852e-02
-4.463998e-02 -4.054945e-02 -1.893992e-02
-5.253477e-02 -5.227443e-02 -4.852764e-02
-5.247083e-02 5.216629e-02 -4.850487e-02
-5.358434e-02 5.106995e-02 -4.858129e-02
-4.982505e-02 4.537472e-02 -2.934242e-02
-5.522570e-02 5.032910e-02 -5.068858e-02
-4.457953e-02 4.060313e-02 -1.895721e-02
-4.620101e-02 4.043467e-02 -2.045682e-02
-5.638005e-02 4.919953e-02 -5.135782e-02
-2.904765e-02 3.538839e-03 5.695133e-02
3.239657e-03 -7.444297e-02 -5.183414e-02
4.968814e-03 -7.470302e-02 -5.092715e-02
4.639535e-03 -6.751156e-02 -2.934862e-02
6.598625e-03 -7.428397e-02 -4.853264e-02
2.755579e-03 -6.136821e-02 -2.020087e-02
3.993325e-03 -6.040442e-02 -1.893335e-02
8.215608e-03 -7.413857e-02 -4.867274e-02
8.227437e-03 7.412107e-02 -4.873318e-02
6.573658e-03 7.422562e-02 -4.857471e-02
4.637776e-03 6.753530e-02 -2.938630e-02
-2.922029e-02 3.055932e-03 5.694028e-02
5.018684e-03 7.469072e-02 -5.100349e-02
3.969311e-03 6.043888e-02 -1.893254e-02
2.816792e-03 6.139720e-02 -2.027244e-02
3.248461e-03 7.441564e-02 -5.177049e-02
7.201539e-02 1.978702e-02 -5.136430e-02
7.118355e-02 2.127039e-02 -5.054346e-02
6.459823e-02 1.919263e-02 -2.942893e-02
7.030240e-02 2.262708e-02 -4.846909e-02
5.929438e-02 1.626949e-02 -2.025958e-02
5.788348e-02 1.717120e-02 -1.890686e-02
-2.919500e-02 2.516673e-03 5.695790e-02
7.019397e-02 2.466461e-02 -4.891183e-02
1.528902e-03 7.463084e-02 -5.091600e-02
1.862834e-03 6.736752e-02 -2.961427e-02
2.414108e-04 7.384444e-02 -4.905206e-02
1.505068e-03 6.026414e-02 -1.935824e-02
-1.607371e-03 7.395431e-02 -4.812778e-02
7.291929e-02 1.496204e-02 -4.820764e-02
7.228101e-02 1.661969e-02 -4.840720e-02
6.539665e-02 1.656343e-02 -2.945815e-02
7.216387e-02 1.818521e-02 -5.062898e-02
-2.918940e-02 2.041985e-03 5.696437e-02
5.846562e-02 1.472075e-02 -1.892922e-02
-1.616318e-03 -7.393874e-02 -4.807590e-02
1.894326e-04 -7.400074e-02 -4.863516e-02
1.788503e-03 -6.726445e-02 -2.966096e-02
1.659987e-03 -7.472108e-02 -5.102355e-02
1.520399e-03 -6.031599e-02 -1.919080e-02
-5.719583e-02 4.775315e-02 -5.024033e-02
-5.171229e-02 4.338873e-02 -2.943053e-02
-5.814377e-02 4.651966e-02 -4.858904e-02
-4.617667e-02 3.862282e-02 -1.914883e-02
-3.048400e-03 2.925645e-02 5.694864e-02
-2.933834e-02 1.543740e-03 5.698934e-02
-5.898929e-02 4.523587e-02 -4.772077e-02
-7.344466e-02 -1.495218e-02 -5.092434e-02
-6.632346e-02 -1.343633e-02 -2.959205e-02
-7.278102e-02 -1.654487e-02 -4.869441e-02
-5.905830e-02 -1.193511e-02 -1.894962e-02
-7.223333e-02 -1.795494e-02 -4.788080e-02
5.715605e-02 -4.742390e-02 -4.778325e-02
5.828616e-02 -4.624985e-02 -4.822261e-02
5.389076e-02 -4.080571e-02 -2.958795e-02
5.953698e-02 -4.528893e-02 -5.061711e-02
-2.929707e-02 1.013391e-03 5.697976e-02
4.789763e-02 -3.622729e-02 -1.893272e-02
-5.902123e-02 -4.526023e-02 -4.820673e-02
-5.814083e-02 -4.652621e-02 -4.865689e-02
-5.181035e-02 -4.345235e-02 -2.963042e-02
-5.734074e-02 -4.790611e-02 -5.069146e-02
-4.616807e-02 -3.874134e-02 -1.921731e-02
-5.064029e-02 -6.419759e-03 -9.375299e-03
-5.672311e-02 -6.898421e-03 -1.519732e-02
-5.386936e-02 -5.647137e-03 -1.232618e-02
-5.815769e-02 -8.161144e-03 -1.711738e-02
-2.931901e-02 5.355939e-04 5.700961e-02
-6.452114e-02 -7.678852e-03 -2.496781e-02
-5.384665e-02 -8.725930e-03 -1.256491e-02
-7.165644e-02 -6.845991e-03 -4.016628e-02
-3.654979e-02 3.565469e-02 -9.439850e-03
-4.067497e-02 3.996801e-02 -1.524287e-02
-3.780225e-02 3.857482e-02 -1.243715e-02
-4.246564e-02 4.025620e-02 -1.735607e-02
-4.594818e-02 4.551719e-02 -2.497596e-02
-4.032667e-02 3.659209e-02 -1.279234e-02
-5.013007e-02 5.175576e-02 -3.988830e-02
2.392628e-02 -6.981740e-05 -1.212760e-01
5.486754e-02 -3.489735e-02 -2.478894e-02
6.164332e-02 -3.724769e-02 -4.014873e-02
4.888598e-02 -3.247621e-02 -1.714081e-02
4.806998e-02 -3.076788e-02 -1.517708e-02
4.480293e-02 -3.118417e-02 -1.273243e-02
4.295324e-02 -2.764373e-02 -9.417419e-03
4.619008e-02 -2.849660e-02 -1.244487e-02
-4.592840e-02 -4.550977e-02 -2.499348e-02
-5.013936e-02 -5.181160e-02 -3.997343e-02
-4.261716e-02 -4.040886e-02 -1.740046e-02
1.768296e-04 -7.899880e-05 -1.253840e-01
-4.058604e-02 -3.992096e-02 -1.516663e-02
-4.034864e-02 -3.663141e-02 -1.287084e-02
-3.646079e-02 -3.559034e-02 -9.334457e-03
-3.795385e-02 -3.850753e-02 -1.240080e-02
5.127728e-03 5.082079e-02 -9.532791e-03
5.818726e-03 5.665767e-02 -1.530609e-02
6.443775e-03 5.363317e-02 -1.237670e-02
5.109104e-03 5.852693e-02 -1.717378e-02
6.939715e-03 6.454334e-02 -2.479756e-02
3.651289e-03 5.453739e-02 -1.251766e-02
-2.367451e-02 -1.221137e-04 -1.213345e-01
9.276343e-03 7.145283e-02 -4.013603e-02
6.929426e-03 -6.451655e-02 -2.473624e-02
9.277051e-03 -7.147511e-02 -4.014850e-02
5.101318e-03 -5.863264e-02 -1.727351e-02
5.802225e-03 -5.653007e-02 -1.538264e-02
3.627756e-03 -5.444744e-02 -1.263595e-02
5.086671e-03 -5.074140e-02 -9.504937e-03
6.363931e-03 -5.353207e-02 -1.230950e-02
6.139694e-02 2.130778e-02 -2.517633e-02
6.788803e-02 2.528330e-02 -3.990965e-02
-4.883795e-02 -1.141219e-03 -1.021670e-01
5.620483e-02 1.786670e-02 -1.731152e-02
5.391950e-02 1.845690e-02 -1.536025e-02
5.230574e-02 1.539769e-02 -1.271195e-02
4.822026e-02 1.634019e-02 -9.626412e-03
5.096458e-02 1.831485e-02 -1.229813e-02
-1.216717e-03 6.484366e-02 -2.502364e-02
-2.988837e-03 7.214351e-02 -3.991026e-02
3.664639e-04 5.888040e-02 -1.750727e-02
-9.170786e-04 5.703474e-02 -1.533296e-02
1.561523e-03 5.426811e-02 -1.272412e-02
-4.876271e-02 -2.185653e-03 -1.021780e-01
-7.053118e-04 5.081893e-02 -9.507890e-03
-1.702790e-03 5.410396e-02 -1.242296e-02
-7.160399e-04 -5.088147e-02 -9.627867e-03
-9.267215e-04 -5.697460e-02 -1.529825e-02
-1.759193e-03 -5.416100e-02 -1.240243e-02
4.376240e-04 -5.878548e-02 -1.763487e-02
-1.234663e-03 -6.478378e-02 -2.500401e-02
1.578065e-03 -5.432823e-02 -1.272947e-02
-2.908637e-03 -7.206677e-02 -3.985629e-02
4.979245e-02 1.075110e-02 -9.477036e-03
-4.852460e-02 -3.346898e-03 -1.023041e-01
5.578257e-02 1.189507e-02 -1.522078e-02
5.321663e-02 1.046881e-02 -1.224735e-02
5.731816e-02 1.350322e-02 -1.709808e-02
6.359415e-02 1.335704e-02 -2.503605e-02
5.274002e-02 1.353418e-02 -1.270592e-02
7.110402e-02 1.314336e-02 -3.992593e-02
-6.283280e-02 -1.546215e-02 -2.477857e-02
-6.957410e-02 -1.874219e-02 -4.027698e-02
-5.755404e-02 -1.276683e-02 -1.727226e-02
-5.512950e-02 -1.334342e-02 -1.508612e-02
-4.876760e-02 -4.420356e-03 -1.022244e-01
-5.365615e-02 -1.070756e-02 -1.283785e-02
-4.941890e-02 -1.178042e-02 -9.394611e-03
-5.241748e-02 -1.365112e-02 -1.223199e-02
-5.157053e-02 3.956295e-02 -2.498516e-02
-5.797469e-02 4.256488e-02 -4.062906e-02
-4.584835e-02 3.696108e-02 -1.717136e-02
-4.523769e-02 3.484001e-02 -1.531986e-02
-4.161586e-02 3.500707e-02 -1.270760e-02
-4.010694e-02 3.128186e-02 -9.540227e-03
-4.339943e-02 3.238728e-02 -1.252700e-02
-3.540277e-03 2.907381e-02 5.694189e-02
-4.856440e-02 -5.475400e-03 -1.022692e-01
3.942512e-02 -3.214751e-02 -9.582774e-03
4.389237e-02 -3.598486e-02 -1.536753e-02
4.109207e-02 -3.490185e-02 -1.242108e-02
4.624785e-02 -3.635655e-02 -1.737660e-02
4.981318e-02 -4.108896e-02 -2.511669e-02
4.351909e-02 -3.281628e-02 -1.288860e-02
5.455184e-02 -4.710769e-02 -4.025710e-02
-4.019199e-02 -3.125665e-02 -9.511632e-03
-4.509186e-02 -3.485386e-02 -1.522465e-02
-4.330940e-02 -3.230232e-02 -1.231949e-02
-4.823579e-02 -6.588136e-03 -1.023836e-01
-4.580362e-02 -3.693334e-02 -1.706514e-02
-5.147722e-02 -3.964173e-02 -2.496826e-02
-4.170674e-02 -3.503086e-02 -1.289672e-02
-5.789883e-02 -4.261134e-02 -4.046190e-02
7.479434e-02 4.969595e-05 -5.288149e-02
7.487940e-02 1.755225e-03 -5.245076e-02
6.817795e-02 1.558673e-03 -3.143317e-02
7.478443e-02 3.192095e-03 -5.175938e-02
6.191877e-02 6.694869e-05 -2.117680e-02
6.166200e-02 1.393293e-03 -2.054268e-02
-4.833805e-02 -7.642123e-03 -1.022001e-01
7.452687e-02 4.726467e-03 -5.104387e-02
-6.525798e-02 3.673116e-02 -5.065383e-02
-6.594019e-02 3.534799e-02 -5.087120e-02
-6.087157e-02 3.083277e-02 -3.105435e-02
-6.688328e-02 3.399925e-02 -5.240082e-02
-5.518141e-02 2.787156e-02 -2.058650e-02
-5.595068e-02 2.689865e-02 -2.085534e-02
-6.767740e-02 3.255648e-02 -5.248560e-02
-6.825927e-02 3.112967e-02 -5.223245e-02
-6.192870e-02 2.819830e-02 -3.088140e-02
-4.807251e-02 -8.698031e-03 -1.023198e-01
-6.866667e-02 2.963952e-02 -5.147388e-02
-5.610578e-02 2.572255e-02 -2.054401e-02
-6.933129e-02 2.805642e-02 -5.068937e-02
4.662373e-02 5.842525e-02 -5.271805e-02
4.527079e-02 5.950540e-02 -5.237185e-02
4.121953e-02 5.394275e-02 -3.068862e-02
4.394669e-02 6.046390e-02 -5.095351e-02
3.853947e-02 4.836480e-02 -2.112373e-02
3.720086e-02 4.859230e-02 -2.004672e-02
4.270539e-02 6.119171e-02 -4.903754e-02
-4.779403e-02 -9.848847e-03 -1.023896e-01
-1.667682e-02 7.302735e-02 -5.257479e-02
-1.813764e-02 7.268131e-02 -5.241099e-02
-1.648479e-02 6.623038e-02 -3.063912e-02
-1.975630e-02 7.218151e-02 -5.152351e-02
-1.378323e-02 6.039899e-02 -2.094270e-02
-1.475823e-02 5.957466e-02 -2.010768e-02
-2.125089e-02 7.160899e-02 -5.076695e-02
-1.194524e-02 7.381785e-02 -5.079180e-02
-1.345843e-02 7.362637e-02 -5.134588e-02
-1.387915e-02 6.694970e-02 -3.085126e-02
-4.780375e-02 -1.091617e-02 -1.022737e-01
-1.515022e-02 7.335172e-02 -5.253393e-02
-1.255205e-02 6.025197e-02 -2.037067e-02
4.662037e-02 -5.846742e-02 -5.255742e-02
4.774711e-02 -5.745910e-02 -5.251957e-02
4.386094e-02 -5.273768e-02 -3.130653e-02
4.909801e-02 -5.653251e-02 -5.192538e-02
3.854668e-02 -4.839215e-02 -2.110133e-02
3.933203e-02 -4.733711e-02 -2.069138e-02
5.032724e-02 -5.534272e-02 -5.083501e-02
5.012969e-02 5.523087e-02 -4.908088e-02
-4.743285e-02 -1.191523e-02 -1.022953e-01
4.895310e-02 5.646795e-02 -5.044975e-02
4.351387e-02 5.238206e-02 -3.048765e-02
4.774456e-02 5.747121e-02 -5.221477e-02
3.898143e-02 4.707536e-02 -2.015477e-02
-1.660848e-02 -7.301057e-02 -5.255693e-02
-1.515489e-02 -7.332290e-02 -5.257962e-02
-1.388572e-02 -6.715554e-02 -3.110119e-02
-1.351993e-02 -7.374188e-02 -5.181407e-02
-1.381143e-02 -6.041036e-02 -2.096350e-02
-1.257885e-02 -6.042953e-02 -2.056072e-02
-4.698792e-02 -1.300502e-02 -1.023398e-01
-1.189803e-02 -7.376165e-02 -5.082254e-02
7.451675e-02 -4.784863e-03 -4.954424e-02
7.464852e-02 -3.266608e-03 -5.027522e-02
6.800123e-02 -1.546829e-03 -3.086752e-02
7.481757e-02 -1.763006e-03 -5.229197e-02
6.107668e-02 -1.345609e-03 -1.985850e-02
-6.755600e-02 -3.244705e-02 -5.263724e-02
-6.677185e-02 -3.401133e-02 -5.263729e-02
-6.105168e-02 -3.094814e-02 -3.118771e-02
-6.602341e-02 -3.543083e-02 -5.173276e-02
-4.685798e-02 -1.407586e-02 -1.021841e-01
-5.584004e-02 -2.684072e-02 -2.093788e-02
-5.503631e-02 -2.784478e-02 -2.051347e-02
-6.518993e-02 -3.671006e-02 -5.075519e-02
-2.128622e-02 -7.153570e-02 -5.057441e-02
-1.972143e-02 -7.212072e-02 -5.093738e-02
-1.649611e-02 -6.622328e-02 -3.066229e-02
-1.818473e-02 -7.268567e-02 -5.234787e-02
-1.472303e-02 -5.959097e-02 -2.011317e-02
-6.945756e-02 -2.809465e-02 -5.092520e-02
-6.876124e-02 -2.965691e-02 -5.144455e-02
-4.645788e-02 -1.502370e-02 -1.023106e-01
-6.224889e-02 -2.839928e-02 -3.078068e-02
-6.822167e-02 -3.109886e-02 -5.251718e-02
-5.591939e-02 -2.561455e-02 -2.024023e-02
4.265223e-02 -6.122639e-02 -4.900341e-02
4.403054e-02 -6.031999e-02 -5.047346e-02
4.119553e-02 -5.394759e-02 -3.066755e-02
4.540853e-02 -5.949495e-02 -5.242640e-02
3.713677e-02 -4.856198e-02 -1.998993e-02
6.617783e-02 4.042704e-03 -2.749687e-02
7.332535e-02 6.129834e-03 -4.412122e-02
-4.014874e-03 2.902666e-02 5.694656e-02
-4.593007e-02 -1.608423e-02 -1.023565e-01
5.993693e-02 2.439998e-03 -1.855439e-02
5.851561e-02 3.270554e-03 -1.724110e-02
5.513737e-02 1.076474e-03 -1.354448e-02
5.265516e-02 2.823111e-03 -1.091767e-02
5.676000e-02 4.039568e-03 -1.502852e-02
-4.622225e-02 2.518148e-02 -1.088164e-02
-5.128648e-02 2.818005e-02 -1.677363e-02
-4.899087e-02 2.800866e-02 -1.466732e-02
-5.281475e-02 2.784044e-02 -1.838456e-02
-5.797752e-02 3.235345e-02 -2.722488e-02
-4.581847e-02 -1.725263e-02 -1.022313e-01
-4.925420e-02 2.469838e-02 -1.315707e-02
-6.314455e-02 3.709205e-02 -4.357223e-02
3.742230e-02 5.312888e-02 -2.550668e-02
4.002622e-02 5.972483e-02 -3.864600e-02
3.538529e-02 4.806247e-02 -1.814662e-02
3.322651e-02 4.696970e-02 -1.578124e-02
3.357767e-02 4.380255e-02 -1.336949e-02
3.045625e-02 4.270722e-02 -1.067929e-02
3.112766e-02 4.537572e-02 -1.308904e-02
-6.118836e-02 2.520330e-02 -2.709259e-02
-4.541200e-02 -1.819235e-02 -1.022969e-01
-6.828246e-02 2.622282e-02 -4.337455e-02
-5.479544e-02 2.390745e-02 -1.811029e-02
-5.375752e-02 2.240974e-02 -1.653628e-02
-4.990818e-02 2.303697e-02 -1.314059e-02
-4.813388e-02 2.026165e-02 -1.085193e-02
-5.196582e-02 2.073303e-02 -1.420454e-02
-1.858141e-02 6.370669e-02 -2.744289e-02
-2.209466e-02 6.968246e-02 -4.341779e-02
-1.554894e-02 5.822832e-02 -1.859224e-02
-1.612081e-02 5.631924e-02 -1.710805e-02
-4.491181e-02 -1.926914e-02 -1.022818e-01
-1.327257e-02 5.373645e-02 -1.357153e-02
-1.425237e-02 5.056546e-02 -1.096392e-02
-1.602189e-02 5.310489e-02 -1.375057e-02
-9.031296e-03 5.207427e-02 -1.113565e-02
-9.997637e-03 5.797003e-02 -1.698665e-02
-8.729653e-03 5.620186e-02 -1.490737e-02
-1.123414e-02 5.924832e-02 -1.865099e-02
-1.098760e-02 6.562738e-02 -2.779064e-02
-1.140347e-02 5.433134e-02 -1.368561e-02
-1.035673e-02 7.255473e-02 -4.401382e-02
-4.457895e-02 -2.026425e-02 -1.022062e-01
4.443553e-02 -4.950619e-02 -2.773439e-02
5.016832e-02 -5.313833e-02 -4.441526e-02
3.927025e-02 -4.564700e-02 -1.876786e-02
3.900960e-02 -4.382615e-02 -1.729999e-02
3.501558e-02 -4.244506e-02 -1.347063e-02
3.492405e-02 -3.941365e-02 -1.125856e-02
3.836896e-02 -4.165637e-02 -1.499937e-02
-1.096672e-02 -6.561838e-02 -2.770435e-02
-1.033031e-02 -7.244212e-02 -4.407884e-02
-1.129616e-02 -5.936729e-02 -1.879447e-02
-4.405539e-02 -2.115922e-02 -1.022335e-01
-1.001135e-02 -5.805775e-02 -1.703069e-02
-1.139833e-02 -5.421889e-02 -1.365533e-02
-9.025994e-03 -5.208894e-02 -1.113974e-02
-8.711488e-03 -5.619554e-02 -1.491169e-02
5.235611e-02 -2.691647e-03 -1.070457e-02
5.748729e-02 -3.239751e-03 -1.572713e-02
5.488442e-02 -4.018140e-03 -1.325782e-02
5.933940e-02 -2.325883e-03 -1.806828e-02
6.506219e-02 -3.940895e-03 -2.519359e-02
5.509655e-02 -1.117805e-03 -1.347648e-02
-4.353867e-02 -2.222627e-02 -1.023137e-01
7.154158e-02 -5.947254e-03 -3.919374e-02
3.464951e-02 3.914289e-02 -1.096516e-02
3.830210e-02 4.296793e-02 -1.581492e-02
3.727943e-02 4.044106e-02 -1.325085e-02
3.917039e-02 4.532778e-02 -1.851317e-02
4.354315e-02 4.844709e-02 -2.533707e-02
3.514582e-02 4.243517e-02 -1.350963e-02
4.934442e-02 5.221913e-02 -3.928789e-02
-5.801519e-02 -3.236821e-02 -2.738041e-02
-6.332453e-02 -3.724847e-02 -4.407797e-02
-4.314121e-02 -2.323834e-02 -1.021999e-01
-5.317730e-02 -2.809192e-02 -1.862526e-02
-5.142577e-02 -2.829717e-02 -1.716260e-02
-4.963363e-02 -2.498203e-02 -1.371765e-02
-4.635751e-02 -2.539402e-02 -1.124831e-02
-4.924413e-02 -2.819781e-02 -1.480083e-02
-1.425931e-02 -5.057082e-02 -1.095406e-02
-1.611067e-02 -5.630940e-02 -1.714164e-02
-1.603317e-02 -5.308651e-02 -1.380236e-02
-1.553670e-02 -5.819229e-02 -1.859839e-02
-1.855627e-02 -6.374159e-02 -2.747675e-02
-4.249224e-02 -2.404691e-02 -1.023569e-01
-1.323697e-02 -5.372460e-02 -1.359729e-02
-2.205542e-02 -6.964187e-02 -4.331152e-02
-4.867382e-02 -2.045972e-02 -1.118973e-02
-5.380917e-02 -2.245820e-02 -1.721587e-02
-5.273992e-02 -2.082863e-02 -1.491964e-02
-5.523552e-02 -2.417169e-02 -1.862636e-02
-6.152430e-02 -2.528789e-02 -2.786191e-02
-5.032528e-02 -2.322339e-02 -1.371194e-02
-6.826150e-02 -2.618151e-02 -4.430875e-02
3.046103e-02 -4.258146e-02 -1.052575e-02
-4.197423e-02 -2.513854e-02 -1.022379e-01
3.327255e-02 -4.701295e-02 -1.572325e-02
3.111676e-02 -4.536608e-02 -1.302731e-02
3.549065e-02 -4.817761e-02 -1.839256e-02
3.741779e-02 -5.303305e-02 -2.554279e-02
3.355333e-02 -4.368191e-02 -1.326130e-02
3.999394e-02 -5.964341e-02 -3.862119e-02
2.244037e-02 7.142525e-02 -5.193098e-02
2.062618e-02 7.192529e-02 -5.249924e-02
1.829229e-02 6.593618e-02 -3.141671e-02
1.922275e-02 7.244243e-02 -5.270010e-02
-4.553023e-03 2.903055e-02 5.691087e-02
-4.151091e-02 -2.607150e-02 -1.021459e-01
1.717462e-02 5.928001e-02 -2.056957e-02
1.593371e-02 5.987201e-02 -2.070167e-02
1.756978e-02 7.291936e-02 -5.267493e-02
-4.192053e-02 6.212273e-02 -5.153961e-02
-4.327441e-02 6.123276e-02 -5.251892e-02
-4.014662e-02 5.548940e-02 -3.107752e-02
-4.466949e-02 6.002258e-02 -5.281607e-02
-3.556238e-02 5.048121e-02 -2.052531e-02
-3.662387e-02 4.971994e-02 -2.085867e-02
-4.586659e-02 5.909623e-02 -5.250542e-02
-4.075813e-02 -2.683498e-02 -1.022910e-01
6.794084e-02 -3.171345e-02 -5.281310e-02
6.863668e-02 -3.014930e-02 -5.275074e-02
6.300125e-02 -2.679042e-02 -3.132458e-02
6.920208e-02 -2.865499e-02 -5.263062e-02
5.686963e-02 -2.495176e-02 -2.119673e-02
5.699490e-02 -2.347410e-02 -2.073101e-02
6.982880e-02 -2.716892e-02 -5.202687e-02
6.712259e-02 3.328003e-02 -5.281059e-02
6.635603e-02 3.482931e-02 -5.290617e-02
6.029787e-02 3.256278e-02 -3.129313e-02
-4.013525e-02 -2.783701e-02 -1.022179e-01
6.551037e-02 3.626909e-02 -5.263354e-02
5.489867e-02 2.890704e-02 -2.129806e-02
5.409259e-02 3.001837e-02 -2.079121e-02
6.472762e-02 3.769595e-02 -5.199939e-02
-4.587314e-02 -5.910206e-02 -5.270680e-02
-4.465176e-02 -6.002954e-02 -5.287387e-02
-4.027037e-02 -5.571332e-02 -3.131859e-02
-4.338894e-02 -6.132326e-02 -5.273495e-02
-3.678074e-02 -4.974678e-02 -2.122199e-02
-3.555820e-02 -5.043663e-02 -2.100937e-02
-3.960442e-02 -2.876428e-02 -1.021626e-01
-4.191125e-02 -6.222601e-02 -5.185930e-02
1.765844e-02 -7.290856e-02 -5.284271e-02
1.923419e-02 -7.244009e-02 -5.274993e-02
1.828984e-02 -6.592327e-02 -3.150680e-02
2.069755e-02 -7.203772e-02 -5.255797e-02